 Gaussian 16, Revision B.01,
 Gaussian 16:  EM64L-G16RevB.01 20-Dec-2017

 ----------------------------------------------------------------------
 # wb97xd/6-31G(d,p) opt freq=noraman iop(3/108=0143700000) iop(3/107=0
 143700000) SCRF=(CorrectedLR,read)
 ----------------------------------------------------------------------

 -----
 TITLE
 -----
 Symbolic Z-matrix:
 Charge =  0 Multiplicity = 1

 SCF Done:  E(RwB97XD) =  -1154.98169493     A.U. after   13 cycles
 SCF Done:  E(RwB97XD) =  -1154.98170360     A.U. after    7 cycles
 Optimization completed.
    -- Stationary point found.
 Normal termination of Gaussian 16 at Fri Jun 16 17:39:29 2023.

 ----------------------------------------------------------------------
 #N Geom=AllCheck Guess=TCheck SCRF=Check Test GenChk RwB97XD/6-31G(d,p
 ) Freq
 ----------------------------------------------------------------------

 Structure from the checkpoint file:  "/home/padawan/Born/Cascata/OptFreq/DPT/OptFreq/Gau-27910.chk"
 -----
 TITLE
 -----
 Charge =  0 Multiplicity = 1

                         Standard orientation:
 ---------------------------------------------------------------------
 Center     Atomic      Atomic             Coordinates (Angstroms)
 Number     Number       Type             X           Y           Z
 ---------------------------------------------------------------------
      1          6           0        1.409039    4.196069    0.000038
      2          6           0        0.715811    5.369884    0.000005
      3          6           0       -0.715791    5.369887   -0.000055
      4          6           0       -1.409023    4.196075   -0.000077
      5          6           0       -0.721408    2.936174   -0.000041
      6          6           0        0.721418    2.936171    0.000013
      7          6           0        1.400817    1.724826    0.000034
      8          6           0        0.722929    0.486881    0.000007
      9          6           0       -0.722927    0.486884   -0.000012
     10          6           0       -1.400811    1.724831   -0.000050
     11          6           0        1.425349   -0.746641    0.000005
     12          6           0        0.723610   -1.955944    0.000003
     13          6           0       -0.723617   -1.955941    0.000017
     14          6           0       -1.425351   -0.746636    0.000002
     15          1           0        2.495236    4.193212    0.000082
     16          1           0        1.246192    6.316641    0.000023
     17          1           0       -1.246169    6.316645   -0.000082
     18          1           0       -2.495220    4.193222   -0.000121
     19          1           0        2.485904    1.730136    0.000071
     20          1           0       -2.485898    1.730146   -0.000086
     21          6           0        1.404249   -3.222760   -0.000025
     22          6           0        0.714121   -4.397350   -0.000006
     23          6           0       -0.714137   -4.397347    0.000046
     24          6           0       -1.404261   -3.222754    0.000055
     25          1           0        2.488420   -3.226700   -0.000064
     26          1           0       -2.488432   -3.226691    0.000093
     27          1           0        1.248723   -5.341753   -0.000029
     28          1           0       -1.248743   -5.341748    0.000077
     29          6           0       -2.919380   -0.741843    0.000001
     30          6           0       -3.630021   -0.736988   -1.206023
     31          6           0       -5.023708   -0.728530   -1.206209
     32          6           0       -5.723406   -0.723895   -0.000003
     33          6           0       -5.023707   -0.727805    1.206204
     34          6           0       -3.630020   -0.736268    1.206022
     35          1           0       -3.082967   -0.740102   -2.143815
     36          1           0       -5.562486   -0.725650   -2.148371
     37          1           0       -3.082965   -0.738820    2.143816
     38          1           0       -6.808598   -0.717337   -0.000005
     39          1           0       -5.562484   -0.724364    2.148365
     40          6           0        2.919377   -0.741851    0.000007
     41          6           0        3.630017   -0.736254   -1.206015
     42          6           0        5.023704   -0.727795   -1.206198
     43          6           0        5.723403   -0.723909    0.000010
     44          6           0        5.023706   -0.728566    1.206215
     45          6           0        3.630019   -0.737021    1.206030
     46          1           0        5.562480   -0.724336   -2.148359
     47          1           0        6.808595   -0.717355    0.000011
     48          1           0        3.082961   -0.738786   -2.143808
     49          1           0        5.562485   -0.725706    2.148377
     50          1           0        3.082965   -0.740153    2.143822
 ---------------------------------------------------------------------

 SCF Done:  E(RwB97XD) =  -1154.90992689     A.U. after   10 cycles

 The electronic state is 1-A.
 Alpha  occ. eigenvalues --  -10.31582 -10.31551 -10.31535 -10.31509 -10.31478
 Alpha  occ. eigenvalues --  -10.31460 -10.31350 -10.31350 -10.31227 -10.31188
 Alpha  occ. eigenvalues --  -10.30500 -10.30500 -10.30484 -10.30484 -10.30439
 Alpha  occ. eigenvalues --  -10.30424 -10.30424 -10.30412 -10.30412 -10.30410
 Alpha  occ. eigenvalues --  -10.30391 -10.30391 -10.30349 -10.30337 -10.30276
 Alpha  occ. eigenvalues --  -10.30235 -10.30235 -10.30234 -10.30094 -10.30093
 Alpha  occ. eigenvalues --   -0.99473  -0.96901  -0.96445  -0.95390  -0.93243
 Alpha  occ. eigenvalues --   -0.90467  -0.89122  -0.87132  -0.84909  -0.84543
 Alpha  occ. eigenvalues --   -0.84543  -0.84229  -0.83607  -0.82321  -0.78622
 Alpha  occ. eigenvalues --   -0.75323  -0.72118  -0.71410  -0.69930  -0.69917
 Alpha  occ. eigenvalues --   -0.69563  -0.68916  -0.68498  -0.65493  -0.64710
 Alpha  occ. eigenvalues --   -0.61858  -0.60756  -0.60464  -0.58542  -0.58142
 Alpha  occ. eigenvalues --   -0.57190  -0.54865  -0.54202  -0.53867  -0.53800
 Alpha  occ. eigenvalues --   -0.53566  -0.53023  -0.52562  -0.51545  -0.50865
 Alpha  occ. eigenvalues --   -0.50493  -0.50438  -0.49800  -0.49752  -0.49047
 Alpha  occ. eigenvalues --   -0.49009  -0.48304  -0.46767  -0.45513  -0.45333
 Alpha  occ. eigenvalues --   -0.45220  -0.44241  -0.43363  -0.42808  -0.42735
 Alpha  occ. eigenvalues --   -0.42653  -0.42036  -0.41146  -0.41138  -0.39066
 Alpha  occ. eigenvalues --   -0.38197  -0.36624  -0.35585  -0.33043  -0.33022
 Alpha  occ. eigenvalues --   -0.32505  -0.32382  -0.30634  -0.30617  -0.24300
 Alpha virt. eigenvalues --   -0.02098   0.04173   0.04891   0.06335   0.06478
 Alpha virt. eigenvalues --    0.06648   0.06997   0.10144   0.11793   0.12032
 Alpha virt. eigenvalues --    0.17766   0.17880   0.18521   0.19130   0.19878

 Mulliken charges:
               1
     1  C   -0.148007
     2  C   -0.145816
     3  C   -0.145816
     4  C   -0.148007
     5  C    0.075091
     6  C    0.075091
     7  C   -0.224819
     8  C    0.074545
     9  C    0.074545
    10  C   -0.224819
    11  C   -0.064329
    12  C    0.056194
    13  C    0.056194
    14  C   -0.064329
    15  H    0.134521
    16  H    0.134823
    17  H    0.134823
    18  H    0.134521
    19  H    0.134753
    20  H    0.134753
    21  C   -0.145796
    22  C   -0.143627
    23  C   -0.143627
    24  C   -0.145796
    25  H    0.135612
    26  H    0.135612
    27  H    0.134199
    28  H    0.134199
    29  C   -0.047387
    30  C   -0.122320
    31  C   -0.134557
    32  C   -0.129819
    33  C   -0.134557
    34  C   -0.122320
    35  H    0.138345
    36  H    0.136220
    37  H    0.138345
    38  H    0.134486
    39  H    0.136220
    40  C   -0.047387
    41  C   -0.122320
    42  C   -0.134557
    43  C   -0.129819
    44  C   -0.134557
    45  C   -0.122320
    46  H    0.136220
    47  H    0.134486
    48  H    0.138345
    49  H    0.136220
    50  H    0.138345
 Sum of Mulliken charges =  -0.00000

 Dipole moment (field-independent basis, Debye):
    X=              0.0000    Y=              0.0319    Z=             -0.0000  Tot=              0.0319
 Quadrupole moment (field-independent basis, Debye-Ang):
   XX=           -141.7024   YY=           -158.7146   ZZ=           -166.6048
   XY=             -0.0000   XZ=              0.0002   YZ=             -0.0003

  Exact polarizability: 495.794   0.000 525.522   0.003  -0.003 212.922
 Approx polarizability: 434.292   0.000 449.447   0.002  -0.003 244.635

                      1                      2                      3
                      A                      A                      A
 Frequencies --     32.6999                33.1248                34.8744
 Red. masses --      3.7610                 3.6379                 5.4865
 Frc consts  --      0.0024                 0.0024                 0.0039
 IR Inten    --      0.0000                 0.0000                 0.0184

                      4                      5                      6
                      A                      A                      A
 Frequencies --     55.8171                62.0423                63.3971
 Red. masses --      5.3121                 5.2351                 5.3512
 Frc consts  --      0.0098                 0.0119                 0.0127
 IR Inten    --      0.4047                 0.0297                 1.0350

                      7                      8                      9
                      A                      A                      A
 Frequencies --     72.1103               102.8461               145.5404
 Red. masses --      3.9598                 3.9494                 5.2267
 Frc consts  --      0.0121                 0.0246                 0.0652
 IR Inten    --      0.0000                 0.0000                 0.0012

                     10                     11                     12
                      A                      A                      A
 Frequencies --    154.5038               171.1216               206.2713
 Red. masses --      5.2426                 4.1375                 6.7146
 Frc consts  --      0.0737                 0.0714                 0.1683
 IR Inten    --      2.3348                 0.0000                 0.0143

                     13                     14                     15
                      A                      A                      A
 Frequencies --    243.7513               255.0240               257.6823
 Red. masses --      4.6502                 4.8756                 4.4888
 Frc consts  --      0.1628                 0.1868                 0.1756
 IR Inten    --      0.1440                 0.7112                 0.4026

                     16                     17                     18
                      A                      A                      A
 Frequencies --    273.2951               286.7074               296.8940
 Red. masses --      3.9925                 4.9472                 5.2256
 Frc consts  --      0.1757                 0.2396                 0.2714
 IR Inten    --      0.0000                 0.6610                 0.0169

                     19                     20                     21
                      A                      A                      A
 Frequencies --    331.1332               405.9948               417.2248
 Red. masses --      6.5446                 5.6227                 2.9096
 Frc consts  --      0.4228                 0.5461                 0.2984
 IR Inten    --      0.0043                 0.1118                 0.0020

                     22                     23                     24
                      A                      A                      A
 Frequencies --    417.9335               426.5640               478.7250
 Red. masses --      2.9137                 3.5098                 4.4981
 Frc consts  --      0.2998                 0.3763                 0.6074
 IR Inten    --      0.0000                 1.1828                 0.0383

                     25                     26                     27
                      A                      A                      A
 Frequencies --    480.9567               481.1506               487.6368
 Red. masses --      4.7272                 2.5346                 3.0460
 Frc consts  --      0.6443                 0.3457                 0.4267
 IR Inten    --      0.0000                11.9612                 4.3972

                     28                     29                     30
                      A                      A                      A
 Frequencies --    510.9039               526.1948               528.1134
 Red. masses --      6.0669                 4.0025                 3.8059
 Frc consts  --      0.9330                 0.6529                 0.6254
 IR Inten    --      0.0028                 2.5845                 0.0000

                     31                     32                     33
                      A                      A                      A
 Frequencies --    584.0477               588.1294               605.0600
 Red. masses --      5.0687                 5.6687                 4.5898
 Frc consts  --      1.0187                 1.1553                 0.9900
 IR Inten    --      0.2815                34.3470                 0.0000

                     34                     35                     36
                      A                      A                      A
 Frequencies --    632.3708               634.7579               641.2711
 Red. masses --      6.1306                 7.0573                 6.3005
 Frc consts  --      1.4444                 1.6754                 1.5265
 IR Inten    --      0.0074                 0.3118                 0.0000

                     37                     38                     39
                      A                      A                      A
 Frequencies --    641.8653               653.1034               693.2246
 Red. masses --      6.9455                 5.2066                 3.4324
 Frc consts  --      1.6859                 1.3085                 0.9718
 IR Inten    --      0.1947                 0.6636                 2.0217

                     40                     41                     42
                      A                      A                      A
 Frequencies --    699.9828               704.1975               724.3634
 Red. masses --      6.1096                 5.9816                 1.7289
 Frc consts  --      1.7637                 1.7477                 0.5345
 IR Inten    --      0.6718                24.1970                73.4162

                     43                     44                     45
                      A                      A                      A
 Frequencies --    725.7025               743.5548               767.1967
 Red. masses --      1.5363                 4.8474                 1.3190
 Frc consts  --      0.4767                 1.5790                 0.4574
 IR Inten    --      0.5650                 0.0000                56.5384

                     46                     47                     48
                      A                      A                      A
 Frequencies --    770.3504               778.1664               787.8913
 Red. masses --      2.6873                 3.1292                 1.5851
 Frc consts  --      0.9396                 1.1164                 0.5797
 IR Inten    --     28.4428                 0.0000                36.5829

                     49                     50                     51
                      A                      A                      A
 Frequencies --    795.9040               797.6544               812.4475
 Red. masses --      2.5849                 3.1477                 3.2664
 Frc consts  --      0.9647                 1.1800                 1.2703
 IR Inten    --      0.6703                22.3901                 0.0000

                     52                     53                     54
                      A                      A                      A
 Frequencies --    848.8000               867.9123               876.4426
 Red. masses --      4.8930                 1.4031                 1.2931
 Frc consts  --      2.0770                 0.6227                 0.5853
 IR Inten    --      0.5140                 0.0000                 0.0000

                     55                     56                     57
                      A                      A                      A
 Frequencies --    877.0228               881.1015               911.7855
 Red. masses --      1.2495                 1.6420                 1.4999
 Frc consts  --      0.5663                 0.7510                 0.7347
 IR Inten    --      0.2212                 0.0000                43.8854

                     58                     59                     60
                      A                      A                      A
 Frequencies --    915.8379               924.2341               937.5910
 Red. masses --      5.6734                 1.6938                 4.5316
 Frc consts  --      2.8037                 0.8525                 2.3471
 IR Inten    --      0.2445                 0.0000                 0.1584

                     61                     62                     63
                      A                      A                      A
 Frequencies --    937.9067               950.3400               969.9615
 Red. masses --      1.7980                 1.7400                 2.6769
 Frc consts  --      0.9319                 0.9259                 1.4838
 IR Inten    --      0.5970                 5.1864                 2.3943

                     64                     65                     66
                      A                      A                      A
 Frequencies --    976.7438               993.9997               994.9862
 Red. masses --      4.5503                 1.3361                 1.3136
 Frc consts  --      2.5577                 0.7778                 0.7662
 IR Inten    --     25.7046                 1.9628                 0.0398

                     67                     68                     69
                      A                      A                      A
 Frequencies --    998.5636               998.6341              1017.3573
 Red. masses --      1.3656                 1.3648                 1.3034
 Frc consts  --      0.8023                 0.8019                 0.7948
 IR Inten    --      0.0000                 0.0012                 0.0000

                     70                     71                     72
                      A                      A                      A
 Frequencies --   1018.7169              1021.9482              1022.0143
 Red. masses --      1.2962                 1.2847                 1.2831
 Frc consts  --      0.7926                 0.7905                 0.7897
 IR Inten    --      0.0000                 0.0617                 0.0541

                     73                     74                     75
                      A                      A                      A
 Frequencies --   1023.5742              1024.1472              1035.9382
 Red. masses --      6.2153                 6.2074                 2.3383
 Frc consts  --      3.8367                 3.8360                 1.4785
 IR Inten    --      8.2991                 0.0514                 8.0716

                     76                     77                     78
                      A                      A                      A
 Frequencies --   1057.0125              1064.1408              1065.4681
 Red. masses --      2.1338                 2.2034                 2.0894
 Frc consts  --      1.4046                 1.4701                 1.3975
 IR Inten    --      9.5502                16.4531                 0.1843

                     79                     80                     81
                      A                      A                      A
 Frequencies --   1113.1292              1113.2977              1158.5743
 Red. masses --      1.5415                 1.5419                 2.4074
 Frc consts  --      1.1253                 1.1260                 1.9039
 IR Inten    --      0.0000                16.8529                10.9680

                     82                     83                     84
                      A                      A                      A
 Frequencies --   1158.5928              1164.2170              1190.6406
 Red. masses --      2.0518                 2.0005                 1.1307
 Frc consts  --      1.6227                 1.5976                 0.9444
 IR Inten    --      0.1449                 3.5795                 0.0000

                     85                     86                     87
                      A                      A                      A
 Frequencies --   1190.6435              1201.8815              1204.3639
 Red. masses --      1.1308                 1.1250                 1.9343
 Frc consts  --      0.9445                 0.9575                 1.6531
 IR Inten    --      0.0001                 0.0884                 0.9886

                     88                     89                     90
                      A                      A                      A
 Frequencies --   1211.9948              1212.0091              1212.6333
 Red. masses --      1.1211                 1.2967                 1.2377
 Frc consts  --      0.9703                 1.1223                 1.0723
 IR Inten    --      3.4407                 0.4081                 0.0000

                     91                     92                     93
                      A                      A                      A
 Frequencies --   1242.6449              1254.6023              1261.3404
 Red. masses --      2.6502                 1.6038                 1.5093
 Frc consts  --      2.4112                 1.4873                 1.4148
 IR Inten    --      0.4837                 0.2973                 0.0842

                     94                     95                     96
                      A                      A                      A
 Frequencies --   1307.9058              1322.7219              1323.0376
 Red. masses --      2.6586                 3.5728                 3.5799
 Frc consts  --      2.6795                 3.6830                 3.6920
 IR Inten    --     13.3359                 0.0032                 0.0000

                     97                     98                     99
                      A                      A                      A
 Frequencies --   1323.9751              1359.1693              1359.5880
 Red. masses --      1.4481                 3.5570                 1.5744
 Frc consts  --      1.4955                 3.8715                 1.7146
 IR Inten    --     12.4332                 3.5190                 0.0000

                    100                    101                    102
                      A                      A                      A
 Frequencies --   1359.6583              1365.2558              1420.0219
 Red. masses --      1.5765                 2.5969                 1.9973
 Frc consts  --      1.7172                 2.8519                 2.3730
 IR Inten    --      0.9316                 8.7620                 8.1297

                    103                    104                    105
                      A                      A                      A
 Frequencies --   1430.0509              1441.8230              1442.2235
 Red. masses --      8.5329                 2.5577                 2.7600
 Frc consts  --     10.2814                 3.1328                 3.3824
 IR Inten    --      0.2367                10.8141                55.7775

                    106                    107                    108
                      A                      A                      A
 Frequencies --   1482.5444              1492.3445              1492.5964
 Red. masses --      6.9852                 2.2394                 2.2406
 Frc consts  --      9.0457                 2.9384                 2.9411
 IR Inten    --      0.4442                13.7348                 0.0000

                    109                    110                    111
                      A                      A                      A
 Frequencies --   1500.2836              1501.5402              1524.8925
 Red. masses --      3.4952                 2.5209                 2.4631
 Frc consts  --      4.6352                 3.3487                 3.3745
 IR Inten    --      2.6991                 2.5847                 6.9243

                    112                    113                    114
                      A                      A                      A
 Frequencies --   1550.0161              1554.7152              1583.0786
 Red. masses --      2.6203                 2.6887                 5.6897
 Frc consts  --      3.7092                 3.8291                 8.4012
 IR Inten    --      0.6627                14.1122                 0.0931

                    115                    116                    117
                      A                      A                      A
 Frequencies --   1612.3173              1618.3737              1628.5740
 Red. masses --      7.7531                 6.0183                 7.7712
 Frc consts  --     11.8748                 9.2872                12.1437
 IR Inten    --      0.0188                 5.5664                 0.0755

                    118                    119                    120
                      A                      A                      A
 Frequencies --   1657.5167              1657.7369              1673.6661
 Red. masses --      5.7426                 5.7567                 6.1431
 Frc consts  --      9.2955                 9.3209                10.1386
 IR Inten    --      4.2754                 0.0000                 6.5374

                    121                    122                    123
                      A                      A                      A
 Frequencies --   1686.9352              1687.8041              1709.4568
 Red. masses --      5.9411                 5.9372                 5.7867
 Frc consts  --      9.9612                 9.9649                 9.9631
 IR Inten    --     16.0224                 0.1340                 0.2636

                    124                    125                    126
                      A                      A                      A
 Frequencies --   1722.5236              3204.5797              3208.1259
 Red. masses --      6.3283                 1.0866                 1.0891
 Frc consts  --     11.0629                 6.5745                 6.6040
 IR Inten    --      4.2039                 2.2721                 1.0777

                    127                    128                    129
                      A                      A                      A
 Frequencies --   3208.7080              3208.7192              3213.6214
 Red. masses --      1.0854                 1.0854                 1.0865
 Frc consts  --      6.5840                 6.5840                 6.6108
 IR Inten    --      2.9368                 0.0089                 7.9248

                    130                    131                    132
                      A                      A                      A
 Frequencies --   3214.5803              3214.5990              3221.7907
 Red. masses --      1.0884                 1.0884                 1.0924
 Frc consts  --      6.6267                 6.6269                 6.6806
 IR Inten    --      0.0000                 0.3065                34.7456

                    133                    134                    135
                      A                      A                      A
 Frequencies --   3221.8112              3222.9685              3223.8873
 Red. masses --      1.0924                 1.0940                 1.0916
 Frc consts  --      6.6807                 6.6956                 6.6847
 IR Inten    --      0.0018                16.6367                24.9099

                    136                    137                    138
                      A                      A                      A
 Frequencies --   3225.2288              3225.5895              3229.3249
 Red. masses --      1.0895                 1.0908                 1.0960
 Frc consts  --      6.6771                 6.6865                 6.7342
 IR Inten    --      7.0394                 6.7885                 0.0000

                    139                    140                    141
                      A                      A                      A
 Frequencies --   3229.3629              3235.7795              3237.8199
 Red. masses --      1.0960                 1.0984                 1.0996
 Frc consts  --      6.7343                 6.7762                 6.7916
 IR Inten    --     69.2887                57.7782                50.6741

                    142                    143                    144
                      A                      A                      A
 Frequencies --   3237.9284              3238.9884              3243.6676
 Red. masses --      1.0996                 1.0944                 1.0978
 Frc consts  --      6.7921                 6.7646                 6.8051
 IR Inten    --      0.0582                19.6482                42.0171

 - Thermochemistry -
 -------------------
 Temperature   298.150 Kelvin.  Pressure   1.00000 Atm.
 Atom     1 has atomic number  6 and mass  12.00000

 Molecular mass:   380.15650 amu.
 Principal axes and moments of inertia in atomic units:
                           1         2         3
     Eigenvalues --  9559.72512********************
           X            1.00000  -0.00000  -0.00000
           Y            0.00000   1.00000   0.00001
           Z            0.00000  -0.00001   1.00000
 This molecule is an asymmetric top.
 Rotational symmetry number  1.
 Warning -- assumption of classical behavior for rotation
           may cause significant error
 Rotational temperatures (Kelvin)      0.00906     0.00680     0.00412
 Rotational constants (GHZ):           0.18879     0.14178     0.08583
 Zero-point vibrational energy    1066971.2 (Joules/Mol)
                                  255.01223 (Kcal/Mol)
 Warning -- explicit consideration of  33 degrees of freedom as
           vibrations may cause significant error
 Vibrational temperatures:     47.05    47.66    50.18    80.31    89.27
          (Kelvin)             91.21   103.75   147.97   209.40   222.30
                              246.21   296.78   350.70   366.92   370.75
                              393.21   412.51   427.16   476.43   584.14
                              600.29   601.31   613.73   688.78   691.99
                              692.27   701.60   735.08   757.08   759.84
                              840.31   846.19   870.55   909.84   913.28
                              922.65   923.50   939.67   997.40  1007.12
                             1013.18  1042.20  1044.12  1069.81  1103.82
                             1108.36  1119.61  1133.60  1145.13  1147.65
                             1168.93  1221.23  1248.73  1261.01  1261.84
                             1267.71  1311.86  1317.69  1329.77  1348.98
                             1349.44  1367.33  1395.56  1405.32  1430.14
                             1431.56  1436.71  1436.81  1463.75  1465.71
                             1470.36  1470.45  1472.70  1473.52  1490.48
                             1520.81  1531.06  1532.97  1601.54  1601.79
                             1666.93  1666.96  1675.05  1713.07  1713.07
                             1729.24  1732.81  1743.79  1743.81  1744.71
                             1787.89  1805.09  1814.79  1881.78  1903.10
                             1903.56  1904.90  1955.54  1956.14  1956.25
                             1964.30  2043.09  2057.52  2074.46  2075.04
                             2133.05  2147.15  2147.51  2158.57  2160.38
                             2193.98  2230.13  2236.89  2277.70  2319.77
                             2328.48  2343.15  2384.80  2385.11  2408.03
                             2427.12  2428.37  2459.53  2478.33  4610.68
                             4615.78  4616.62  4616.63  4623.68  4625.06
                             4625.09  4635.44  4635.47  4637.13  4638.45
                             4640.38  4640.90  4646.28  4646.33  4655.56
                             4658.50  4658.66  4660.18  4666.91

 Zero-point correction=                           0.406388 (Hartree/Particle)
 Thermal correction to Energy=                    0.428113
 Thermal correction to Enthalpy=                  0.429057
 Thermal correction to Gibbs Free Energy=         0.354409
 Sum of electronic and zero-point Energies=          -1154.503539
 Sum of electronic and thermal Energies=             -1154.481814
 Sum of electronic and thermal Enthalpies=           -1154.480870
 Sum of electronic and thermal Free Energies=        -1154.555518

                     E (Thermal)             CV                S
                      KCal/Mol        Cal/Mol-Kelvin    Cal/Mol-Kelvin
 Total                  268.645             90.003            157.111
 Electronic               0.000              0.000              0.000
 Translational            0.889              2.981             43.699
 Rotational               0.889              2.981             36.191
 Vibrational            266.868             84.041             77.222
 Vibration     1          0.594              1.983              5.659
 Vibration     2          0.594              1.983              5.633
 Vibration     3          0.594              1.983              5.531
 Vibration     4          0.596              1.975              4.600
 Vibration     5          0.597              1.972              4.391
 Vibration     6          0.597              1.972              4.349
 Vibration     7          0.598              1.967              4.095
 Vibration     8          0.605              1.947              3.400
 Vibration     9          0.617              1.907              2.730
 Vibration    10          0.620              1.898              2.616
 Vibration    11          0.626              1.878              2.423
 Vibration    12          0.641              1.831              2.076
 Vibration    13          0.659              1.773              1.775
 Vibration    14          0.665              1.754              1.696
 Vibration    15          0.667              1.750              1.677
 Vibration    16          0.676              1.723              1.575
 Vibration    17          0.684              1.698              1.493
 Vibration    18          0.691              1.680              1.434
 Vibration    19          0.713              1.613              1.255
 Vibration    20          0.771              1.457              0.941
 Vibration    21          0.780              1.433              0.901
 Vibration    22          0.781              1.431              0.899
 Vibration    23          0.788              1.412              0.870
 Vibration    24          0.835              1.297              0.714
 Vibration    25          0.837              1.292              0.707
 Vibration    26          0.837              1.292              0.707
 Vibration    27          0.844              1.277              0.690
 Vibration    28          0.866              1.226              0.631
 Vibration    29          0.881              1.192              0.596
 Vibration    30          0.883              1.188              0.591
 Vibration    31          0.941              1.066              0.478
 Vibration    32          0.945              1.057              0.471
 Vibration    33          0.964              1.021              0.441

                           ! Non-Optimized Parameters !
 Normal termination of Gaussian 16 at Fri Jun 16 18:09:09 2023.
